System Description

200 atoms
199 bonds

1 atom types
1 bond types

-19 6 xlo xhi
-12 7 ylo yhi
-1 13 zlo zhi

Masses

1 1

Atoms

1 1 1 0 0 0 0 0 0
2 1 1 1 0 0 0 0 0
3 1 1 2 0 0 0 0 0
4 1 1 3 0 0 0 0 0
5 1 1 4 0 0 0 0 0
6 1 1 5 0 0 0 0 0
7 1 1 5 -1 0 0 0 0
8 1 1 4 -1 0 0 0 0
9 1 1 3 -1 0 0 0 0
10 1 1 3 -2 0 0 0 0
11 1 1 3 -3 0 0 0 0
12 1 1 3 -4 0 0 0 0
13 1 1 4 -4 0 0 0 0
14 1 1 4 -4 1 0 0 0
15 1 1 4 -4 2 0 0 0
16 1 1 4 -5 2 0 0 0
17 1 1 4 -6 2 0 0 0
18 1 1 3 -6 2 0 0 0
19 1 1 3 -6 1 0 0 0
20 1 1 2 -6 1 0 0 0
21 1 1 2 -7 1 0 0 0
22 1 1 3 -7 1 0 0 0
23 1 1 3 -7 2 0 0 0
24 1 1 3 -8 2 0 0 0
25 1 1 3 -8 3 0 0 0
26 1 1 3 -9 3 0 0 0
27 1 1 3 -9 4 0 0 0
28 1 1 2 -9 4 0 0 0
29 1 1 2 -9 5 0 0 0
30 1 1 2 -10 5 0 0 0
31 1 1 1 -10 5 0 0 0
32 1 1 1 -10 6 0 0 0
33 1 1 1 -10 7 0 0 0
34 1 1 0 -10 7 0 0 0
35 1 1 0 -10 8 0 0 0
36 1 1 0 -9 8 0 0 0
37 1 1 -1 -9 8 0 0 0
38 1 1 -1 -10 8 0 0 0
39 1 1 -2 -10 8 0 0 0
40 1 1 -2 -11 8 0 0 0
41 1 1 -2 -11 7 0 0 0
42 1 1 -2 -10 7 0 0 0
43 1 1 -2 -10 6 0 0 0
44 1 1 -3 -10 6 0 0 0
45 1 1 -3 -10 5 0 0 0
46 1 1 -4 -10 5 0 0 0
47 1 1 -4 -10 4 0 0 0
48 1 1 -4 -9 4 0 0 0
49 1 1 -5 -9 4 0 0 0
50 1 1 -5 -8 4 0 0 0
51 1 1 -5 -7 4 0 0 0
52 1 1 -4 -7 4 0 0 0
53 1 1 -4 -7 3 0 0 0
54 1 1 -3 -7 3 0 0 0
55 1 1 -3 -7 4 0 0 0
56 1 1 -3 -8 4 0 0 0
57 1 1 -3 -9 4 0 0 0
58 1 1 -3 -10 4 0 0 0
59 1 1 -3 -11 4 0 0 0
60 1 1 -3 -11 3 0 0 0
61 1 1 -4 -11 3 0 0 0
62 1 1 -4 -11 4 0 0 0
63 1 1 -4 -11 5 0 0 0
64 1 1 -4 -11 6 0 0 0
65 1 1 -5 -11 6 0 0 0
66 1 1 -5 -11 7 0 0 0
67 1 1 -4 -11 7 0 0 0
68 1 1 -3 -11 7 0 0 0
69 1 1 -3 -10 7 0 0 0
70 1 1 -4 -10 7 0 0 0
71 1 1 -4 -10 6 0 0 0
72 1 1 -4 -9 6 0 0 0
73 1 1 -4 -8 6 0 0 0
74 1 1 -4 -7 6 0 0 0
75 1 1 -4 -6 6 0 0 0
76 1 1 -4 -5 6 0 0 0
77 1 1 -4 -5 5 0 0 0
78 1 1 -4 -5 4 0 0 0
79 1 1 -4 -6 4 0 0 0
80 1 1 -4 -6 5 0 0 0
81 1 1 -3 -6 5 0 0 0
82 1 1 -3 -7 5 0 0 0
83 1 1 -4 -7 5 0 0 0
84 1 1 -5 -7 5 0 0 0
85 1 1 -5 -7 6 0 0 0
86 1 1 -5 -7 7 0 0 0
87 1 1 -5 -7 8 0 0 0
88 1 1 -5 -7 9 0 0 0
89 1 1 -6 -7 9 0 0 0
90 1 1 -6 -7 8 0 0 0
91 1 1 -7 -7 8 0 0 0
92 1 1 -8 -7 8 0 0 0
93 1 1 -9 -7 8 0 0 0
94 1 1 -10 -7 8 0 0 0
95 1 1 -10 -6 8 0 0 0
96 1 1 -9 -6 8 0 0 0
97 1 1 -8 -6 8 0 0 0
98 1 1 -8 -5 8 0 0 0
99 1 1 -8 -5 7 0 0 0
100 1 1 -8 -6 7 0 0 0
101 1 1 -7 -6 7 0 0 0
102 1 1 -7 -6 8 0 0 0
103 1 1 -7 -5 8 0 0 0
104 1 1 -7 -5 7 0 0 0
105 1 1 -6 -5 7 0 0 0
106 1 1 -6 -5 6 0 0 0
107 1 1 -6 -6 6 0 0 0
108 1 1 -7 -6 6 0 0 0
109 1 1 -7 -7 6 0 0 0
110 1 1 -7 -7 5 0 0 0
111 1 1 -7 -7 4 0 0 0
112 1 1 -7 -6 4 0 0 0
113 1 1 -7 -5 4 0 0 0
114 1 1 -7 -5 5 0 0 0
115 1 1 -8 -5 5 0 0 0
116 1 1 -8 -5 6 0 0 0
117 1 1 -9 -5 6 0 0 0
118 1 1 -9 -5 7 0 0 0
119 1 1 -9 -4 7 0 0 0
120 1 1 -9 -4 6 0 0 0
121 1 1 -10 -4 6 0 0 0
122 1 1 -10 -4 5 0 0 0
123 1 1 -10 -4 4 0 0 0
124 1 1 -10 -3 4 0 0 0
125 1 1 -9 -3 4 0 0 0
126 1 1 -9 -3 5 0 0 0
127 1 1 -9 -3 6 0 0 0
128 1 1 -8 -3 6 0 0 0
129 1 1 -7 -3 6 0 0 0
130 1 1 -7 -2 6 0 0 0
131 1 1 -7 -1 6 0 0 0
132 1 1 -8 -1 6 0 0 0
133 1 1 -8 -1 5 0 0 0
134 1 1 -8 0 5 0 0 0
135 1 1 -9 0 5 0 0 0
136 1 1 -9 1 5 0 0 0
137 1 1 -9 1 6 0 0 0
138 1 1 -8 1 6 0 0 0
139 1 1 -8 1 7 0 0 0
140 1 1 -7 1 7 0 0 0
141 1 1 -7 1 8 0 0 0
142 1 1 -7 1 9 0 0 0
143 1 1 -6 1 9 0 0 0
144 1 1 -6 2 9 0 0 0
145 1 1 -6 2 8 0 0 0
146 1 1 -6 2 7 0 0 0
147 1 1 -6 3 7 0 0 0
148 1 1 -6 3 6 0 0 0
149 1 1 -7 3 6 0 0 0
150 1 1 -7 3 7 0 0 0
151 1 1 -8 3 7 0 0 0
152 1 1 -9 3 7 0 0 0
153 1 1 -9 4 7 0 0 0
154 1 1 -8 4 7 0 0 0
155 1 1 -8 5 7 0 0 0
156 1 1 -8 6 7 0 0 0
157 1 1 -9 6 7 0 0 0
158 1 1 -9 5 7 0 0 0
159 1 1 -10 5 7 0 0 0
160 1 1 -11 5 7 0 0 0
161 1 1 -11 4 7 0 0 0
162 1 1 -12 4 7 0 0 0
163 1 1 -12 3 7 0 0 0
164 1 1 -12 2 7 0 0 0
165 1 1 -12 1 7 0 0 0
166 1 1 -12 1 8 0 0 0
167 1 1 -12 2 8 0 0 0
168 1 1 -13 2 8 0 0 0
169 1 1 -14 2 8 0 0 0
170 1 1 -14 3 8 0 0 0
171 1 1 -13 3 8 0 0 0
172 1 1 -13 4 8 0 0 0
173 1 1 -13 5 8 0 0 0
174 1 1 -13 6 8 0 0 0
175 1 1 -14 6 8 0 0 0
176 1 1 -14 6 9 0 0 0
177 1 1 -14 5 9 0 0 0
178 1 1 -14 4 9 0 0 0
179 1 1 -15 4 9 0 0 0
180 1 1 -15 4 10 0 0 0
181 1 1 -16 4 10 0 0 0
182 1 1 -16 3 10 0 0 0
183 1 1 -17 3 10 0 0 0
184 1 1 -18 3 10 0 0 0
185 1 1 -18 3 11 0 0 0
186 1 1 -18 4 11 0 0 0
187 1 1 -18 4 12 0 0 0
188 1 1 -18 5 12 0 0 0
189 1 1 -17 5 12 0 0 0
190 1 1 -17 5 11 0 0 0
191 1 1 -17 5 10 0 0 0
192 1 1 -17 6 10 0 0 0
193 1 1 -17 6 9 0 0 0
194 1 1 -16 6 9 0 0 0
195 1 1 -16 6 8 0 0 0
196 1 1 -16 5 8 0 0 0
197 1 1 -16 5 9 0 0 0
198 1 1 -16 5 10 0 0 0
199 1 1 -15 5 10 0 0 0
200 1 1 -14 5 10 0 0 0

Velocities 

1 0 0 0
2 0 0 0
3 0 0 0
4 0 0 0
5 0 0 0
6 0 0 0
7 0 0 0
8 0 0 0
9 0 0 0
10 0 0 0
11 0 0 0
12 0 0 0
13 0 0 0
14 0 0 0
15 0 0 0
16 0 0 0
17 0 0 0
18 0 0 0
19 0 0 0
20 0 0 0
21 0 0 0
22 0 0 0
23 0 0 0
24 0 0 0
25 0 0 0
26 0 0 0
27 0 0 0
28 0 0 0
29 0 0 0
30 0 0 0
31 0 0 0
32 0 0 0
33 0 0 0
34 0 0 0
35 0 0 0
36 0 0 0
37 0 0 0
38 0 0 0
39 0 0 0
40 0 0 0
41 0 0 0
42 0 0 0
43 0 0 0
44 0 0 0
45 0 0 0
46 0 0 0
47 0 0 0
48 0 0 0
49 0 0 0
50 0 0 0
51 0 0 0
52 0 0 0
53 0 0 0
54 0 0 0
55 0 0 0
56 0 0 0
57 0 0 0
58 0 0 0
59 0 0 0
60 0 0 0
61 0 0 0
62 0 0 0
63 0 0 0
64 0 0 0
65 0 0 0
66 0 0 0
67 0 0 0
68 0 0 0
69 0 0 0
70 0 0 0
71 0 0 0
72 0 0 0
73 0 0 0
74 0 0 0
75 0 0 0
76 0 0 0
77 0 0 0
78 0 0 0
79 0 0 0
80 0 0 0
81 0 0 0
82 0 0 0
83 0 0 0
84 0 0 0
85 0 0 0
86 0 0 0
87 0 0 0
88 0 0 0
89 0 0 0
90 0 0 0
91 0 0 0
92 0 0 0
93 0 0 0
94 0 0 0
95 0 0 0
96 0 0 0
97 0 0 0
98 0 0 0
99 0 0 0
100 0 0 0
101 0 0 0
102 0 0 0
103 0 0 0
104 0 0 0
105 0 0 0
106 0 0 0
107 0 0 0
108 0 0 0
109 0 0 0
110 0 0 0
111 0 0 0
112 0 0 0
113 0 0 0
114 0 0 0
115 0 0 0
116 0 0 0
117 0 0 0
118 0 0 0
119 0 0 0
120 0 0 0
121 0 0 0
122 0 0 0
123 0 0 0
124 0 0 0
125 0 0 0
126 0 0 0
127 0 0 0
128 0 0 0
129 0 0 0
130 0 0 0
131 0 0 0
132 0 0 0
133 0 0 0
134 0 0 0
135 0 0 0
136 0 0 0
137 0 0 0
138 0 0 0
139 0 0 0
140 0 0 0
141 0 0 0
142 0 0 0
143 0 0 0
144 0 0 0
145 0 0 0
146 0 0 0
147 0 0 0
148 0 0 0
149 0 0 0
150 0 0 0
151 0 0 0
152 0 0 0
153 0 0 0
154 0 0 0
155 0 0 0
156 0 0 0
157 0 0 0
158 0 0 0
159 0 0 0
160 0 0 0
161 0 0 0
162 0 0 0
163 0 0 0
164 0 0 0
165 0 0 0
166 0 0 0
167 0 0 0
168 0 0 0
169 0 0 0
170 0 0 0
171 0 0 0
172 0 0 0
173 0 0 0
174 0 0 0
175 0 0 0
176 0 0 0
177 0 0 0
178 0 0 0
179 0 0 0
180 0 0 0
181 0 0 0
182 0 0 0
183 0 0 0
184 0 0 0
185 0 0 0
186 0 0 0
187 0 0 0
188 0 0 0
189 0 0 0
190 0 0 0
191 0 0 0
192 0 0 0
193 0 0 0
194 0 0 0
195 0 0 0
196 0 0 0
197 0 0 0
198 0 0 0
199 0 0 0
200 0 0 0

Bonds 

1 1 1 2
2 1 2 3
3 1 3 4
4 1 4 5
5 1 5 6
6 1 6 7
7 1 7 8
8 1 8 9
9 1 9 10
10 1 10 11
11 1 11 12
12 1 12 13
13 1 13 14
14 1 14 15
15 1 15 16
16 1 16 17
17 1 17 18
18 1 18 19
19 1 19 20
20 1 20 21
21 1 21 22
22 1 22 23
23 1 23 24
24 1 24 25
25 1 25 26
26 1 26 27
27 1 27 28
28 1 28 29
29 1 29 30
30 1 30 31
31 1 31 32
32 1 32 33
33 1 33 34
34 1 34 35
35 1 35 36
36 1 36 37
37 1 37 38
38 1 38 39
39 1 39 40
40 1 40 41
41 1 41 42
42 1 42 43
43 1 43 44
44 1 44 45
45 1 45 46
46 1 46 47
47 1 47 48
48 1 48 49
49 1 49 50
50 1 50 51
51 1 51 52
52 1 52 53
53 1 53 54
54 1 54 55
55 1 55 56
56 1 56 57
57 1 57 58
58 1 58 59
59 1 59 60
60 1 60 61
61 1 61 62
62 1 62 63
63 1 63 64
64 1 64 65
65 1 65 66
66 1 66 67
67 1 67 68
68 1 68 69
69 1 69 70
70 1 70 71
71 1 71 72
72 1 72 73
73 1 73 74
74 1 74 75
75 1 75 76
76 1 76 77
77 1 77 78
78 1 78 79
79 1 79 80
80 1 80 81
81 1 81 82
82 1 82 83
83 1 83 84
84 1 84 85
85 1 85 86
86 1 86 87
87 1 87 88
88 1 88 89
89 1 89 90
90 1 90 91
91 1 91 92
92 1 92 93
93 1 93 94
94 1 94 95
95 1 95 96
96 1 96 97
97 1 97 98
98 1 98 99
99 1 99 100
100 1 100 101
101 1 101 102
102 1 102 103
103 1 103 104
104 1 104 105
105 1 105 106
106 1 106 107
107 1 107 108
108 1 108 109
109 1 109 110
110 1 110 111
111 1 111 112
112 1 112 113
113 1 113 114
114 1 114 115
115 1 115 116
116 1 116 117
117 1 117 118
118 1 118 119
119 1 119 120
120 1 120 121
121 1 121 122
122 1 122 123
123 1 123 124
124 1 124 125
125 1 125 126
126 1 126 127
127 1 127 128
128 1 128 129
129 1 129 130
130 1 130 131
131 1 131 132
132 1 132 133
133 1 133 134
134 1 134 135
135 1 135 136
136 1 136 137
137 1 137 138
138 1 138 139
139 1 139 140
140 1 140 141
141 1 141 142
142 1 142 143
143 1 143 144
144 1 144 145
145 1 145 146
146 1 146 147
147 1 147 148
148 1 148 149
149 1 149 150
150 1 150 151
151 1 151 152
152 1 152 153
153 1 153 154
154 1 154 155
155 1 155 156
156 1 156 157
157 1 157 158
158 1 158 159
159 1 159 160
160 1 160 161
161 1 161 162
162 1 162 163
163 1 163 164
164 1 164 165
165 1 165 166
166 1 166 167
167 1 167 168
168 1 168 169
169 1 169 170
170 1 170 171
171 1 171 172
172 1 172 173
173 1 173 174
174 1 174 175
175 1 175 176
176 1 176 177
177 1 177 178
178 1 178 179
179 1 179 180
180 1 180 181
181 1 181 182
182 1 182 183
183 1 183 184
184 1 184 185
185 1 185 186
186 1 186 187
187 1 187 188
188 1 188 189
189 1 189 190
190 1 190 191
191 1 191 192
192 1 192 193
193 1 193 194
194 1 194 195
195 1 195 196
196 1 196 197
197 1 197 198
198 1 198 199
199 1 199 200
